TITLE = "2D Grid"
FILETYPE = GRID
VARIABLES = "X" "Y"
ZONE T = "Coordinates", DATAPACKING = POINT, NODES = 14, ELEMENTS = 18, ZONETYPE = FETRIANGLE
0 0
0.1 0.3
0.1 -0.3
-0.1 0.3
-0.1 -0.3
0.1 0.1
0 0.1
-0.1 0.1
0.05 0
0.05 0.1
0.1 0
-0.05 0
-0.05 -0.1
-0.1 0
5 13 14 
13 3 11 
8 12 7 
4 7 2 
7 1 9 
10 9 11 
12 1 7 
7 9 10 
9 13 11 
4 8 7 
13 12 14 
7 10 2 
10 6 2 
10 11 6 
14 12 8 
1 13 9 
5 3 13 
13 1 12 
